<UPF version="2.0.1">
<PP_INFO>
Generated by new atomic code, or converted to UPF format
Author:
Generation date:
Pseudopotential type: US
Element: Zr
Functional:  SLA  PW   PBE  PBE
Suggested minimum cutoff for wavefunctions:   0. Ry
Suggested minimum cutoff for charge density:   0. Ry
The Pseudo was generated with a Scalar-Relativistic Calculation
L component and cutoff radius for Local Potential:  0   0.0000
Valence configuration:
nl pn  l   occ       Rcut    Rcut US       E pseu
4S  0  0  2.00     10.000      1.800     0.000000
4P  0  1  6.00     10.000      2.000     0.000000
4D  0  2  2.00     10.000      2.200     0.000000
5S  0  0  2.00     10.000      1.800     0.000000
5P  0  1  0.00     10.000      2.000     0.000000
Generation configuration: not available.
</PP_INFO>
<!--
END OF HUMAN READABLE SECTION
-->
<PP_HEADER generated="Generated by new atomic code, or converted to UPF format" author="" date="" comment="" element="Zr" pseudo_type="US" relativistic="scalar" is_ultrasoft="true" is_paw="false" is_coulomb="false" has_so="false" has_wfc="false" has_gipaw="false" paw_as_gipaw="false" core_correction="true" functional=" SLA  PW   PBE  PBE" z_valence="1.200000000000e1" total_psenergy="-9.861631149800e1" wfc_cutoff="0.000000000000e0" rho_cutoff="0.000000000000e0" l_max="2" l_max_rho="0" l_local="0" mesh_size="887" number_of_wfc="5" number_of_proj="6"/>
<PP_MESH mesh="887" rmax="2.060398089950e2" zmesh="4.000000000000e1">
<PP_R>
0.000000000000000e0 1.059270227000000e-6 2.136647200200000e-6 3.232440429150000e-6
4.346964714050000e-6 5.480540236150000e-6 6.633492649770001e-6 7.806153175820000e-6
8.998858696990000e-6 1.021195185450000e-5 1.144578114650000e-5 1.270070102830000e-5
1.397707201410000e-5 1.527526078060000e-5 1.659564027230000e-5 1.793858980860000e-5
1.930449519310000e-5 2.069374882380000e-5 2.210674980650000e-5 2.354390406890000e-5
2.500562447780000e-5 2.649233095700001e-5 2.800445060870000e-5 2.954241783550000e-5
3.110667446550000e-5 3.269766987959999e-5 3.431586113989999e-5 3.596171312140000e-5
3.763569864560000e-5 3.933829861600000e-5 4.107000215680000e-5 4.283130675280001e-5
4.462271839280000e-5 4.644475171470000e-5 4.829793015330000e-5 5.018278609100001e-5
5.209986101050000e-5 5.404970565019999e-5 5.603288016279999e-5 5.804995427590000e-5
6.010150745590000e-5 6.218812907439998e-5 6.431041857730001e-5 6.646898565740001e-5
6.866445042920000e-5 7.089744360729999e-5 7.316860668729999e-5 7.547859213050000e-5
7.782806355100000e-5 8.021769590649999e-5 8.264817569220000e-5 8.512020113769999e-5
8.763448240819999e-5 9.019174180809999e-5 9.279271398850000e-5 9.543814615840001e-5
9.812879829920002e-5 1.008654433830000e-4 1.036488675960000e-4 1.064798705600000e-4
1.093592655700000e-4 1.122878798190000e-4 1.152665546410000e-4 1.182961457520000e-4
1.213775234950000e-4 1.245115730900000e-4 1.276991948880000e-4 1.309413046330000e-4
1.342388337200000e-4 1.375927294640000e-4 1.410039553740000e-4 1.444734914320000e-4
1.480023343650000e-4 1.515914979440000e-4 1.552420132650000e-4 1.589549290510000e-4
1.627313119510000e-4 1.665722468460000e-4 1.704788371620000e-4 1.744522051880000e-4
1.784934923950000e-4 1.826038597660000e-4 1.867844881310000e-4 1.910365785040000e-4
1.953613524270000e-4 1.997600523250000e-4 2.042339418590000e-4 2.087843062900000e-4
2.134124528510000e-4 2.181197111180000e-4 2.229074333960000e-4 2.277769951040000e-4
2.327297951740000e-4 2.377672564480000e-4 2.428908260930000e-4 2.481019760100000e-4
2.534022032630000e-4 2.587930305030000e-4 2.642760064120000e-4 2.698527061410000e-4
2.755247317690000e-4 2.812937127600001e-4 2.871613064289999e-4 2.931291984230000e-4
2.991991032020000e-4 3.053727645320000e-4 3.116519559870000e-4 3.180384814550000e-4
3.245341756640000e-4 3.311409047000000e-4 3.378605665480000e-4 3.446950916370000e-4
3.516464433950000e-4 3.587166188089999e-4 3.659076490049999e-4 3.732215998260000e-4
3.806605724290000e-4 3.882267038859999e-4 3.959221678020000e-4 4.037491749329999e-4
4.117099738280000e-4 4.198068514690000e-4 4.280421339340000e-4 4.364181870590000e-4
4.449374171230000e-4 4.536022715350001e-4 4.624152395400000e-4 4.713788529339999e-4
4.804956867890001e-4 4.897683601960000e-4 4.991995370130001e-4 5.087919266350001e-4
5.185482847710000e-4 5.284714142329999e-4 5.385641657450001e-4 5.488294387580001e-4
5.592701822870000e-4 5.698893957550001e-4 5.806901298570000e-4 5.916754874350000e-4
6.028486243690000e-4 6.142127504859999e-4 6.257711304789999e-4 6.375270848470000e-4
6.494839908480000e-4 6.616452834700000e-4 6.740144564160000e-4 6.865950631120000e-4
6.993907177220001e-4 7.124050961889999e-4 7.256419372930001e-4 7.391050437219999e-4
7.527982831670000e-4 7.667255894289999e-4 7.808909635550000e-4 7.952984749810001e-4
8.099522627090000e-4 8.248565364870000e-4 8.400155780240002e-4 8.554337422200000e-4
8.711154584150000e-4 8.870652316630000e-4 9.032876440250000e-4 9.197873558870000e-4
9.365691072950000e-4 9.536377193220000e-4 9.709980954510000e-4 9.886552229820001e-4
1.006614174470000e-3 1.024880109160000e-3 1.043458274520000e-3 1.062354007680000e-3
1.081572737030000e-3 1.101119983740000e-3 1.121001363360000e-3 1.141222587400000e-3
1.161789465060000e-3 1.182707904780000e-3 1.203983916040000e-3 1.225623611010000e-3
1.247633206370000e-3 1.270019025050000e-3 1.292787498050000e-3 1.315945166330000e-3
1.339498682620000e-3 1.363454813400000e-3 1.387820440810000e-3 1.412602564610000e-3
1.437808304230000e-3 1.463444900800000e-3 1.489519719200000e-3 1.516040250230000e-3
1.543014112730000e-3 1.570449055760000e-3 1.598352960860000e-3 1.626733844270000e-3
1.655599859270000e-3 1.684959298520000e-3 1.714820596400000e-3 1.745192331490000e-3
1.776083229010000e-3 1.807502163320000e-3 1.839458160450000e-3 1.871960400760000e-3
1.905018221500000e-3 1.938641119560000e-3 1.972838754130000e-3 2.007620949540000e-3
2.042997698030000e-3 2.078979162670000e-3 2.115575680230000e-3 2.152797764190000e-3
2.190656107720000e-3 2.229161586800000e-3 2.268325263300000e-3 2.308158388200000e-3
2.348672404780000e-3 2.389878951930000e-3 2.431789867490000e-3 2.474417191660000e-3
2.517773170450000e-3 2.561870259190000e-3 2.606721126110000e-3 2.652338656020000e-3
2.698735953930000e-3 2.745926348890000e-3 2.793923397800000e-3 2.842740889280000e-3
2.892392847640000e-3 2.942893536940000e-3 2.994257465030000e-3 3.046499387800000e-3
3.099634313320000e-3 3.153677506250000e-3 3.208644492130000e-3 3.264551061920000e-3
3.321413276500000e-3 3.379247471280000e-3 3.438070260900000e-3 3.497898544020001e-3
3.558749508140000e-3 3.620640634570000e-3 3.683589703430000e-3 3.747614798770000e-3
3.812734313760000e-3 3.878966955980001e-3 3.946331752779999e-3 4.014848056769999e-3
4.084535551350000e-3 4.155414256389999e-3 4.227504533979999e-3 4.300827094250001e-3
4.375403001360000e-3 4.451253679530000e-3 4.528400919179999e-3 4.606866883220000e-3
4.686674113410000e-3 4.767845536819999e-3 4.850404472430000e-3 4.934374637820000e-3
5.019780155999999e-3 5.106645562320001e-3 5.194995811530000e-3 5.284856284950000e-3
5.376252797750000e-3 5.469211606390000e-3 5.563759416120000e-3 5.659923388710000e-3
5.757731150200001e-3 5.857210798870001e-3 5.958390913300001e-3 6.061300560580001e-3
6.165969304650000e-3 6.272427214830000e-3 6.380704874410002e-3 6.490833389470001e-3
6.602844397799999e-3 6.716770077980000e-3 6.832643158680001e-3 6.950496927970001e-3
7.070365242980001e-3 7.192282539530000e-3 7.316283842130000e-3 7.442404773930001e-3
7.570681567049999e-3 7.701151072919999e-3 7.833850772910001e-3 7.968818789069999e-3
8.106093895099999e-3 8.245715527489999e-3 8.387723796829999e-3 8.532159499339999e-3
8.679064128609999e-3 8.828479887500002e-3 8.980449700249999e-3 9.135017224869999e-3
9.292226865600000e-3 9.452123785740001e-3 9.614753920570001e-3 9.780163990590001e-3
9.948401514910000e-3 1.011951482490000e-2 1.029355307810000e-2 1.047056627240000e-2
1.065060526020000e-2 1.083372176320000e-2 1.101996838730000e-2 1.120939863750000e-2
1.140206693340000e-2 1.159802862500000e-2 1.179734000820000e-2 1.200005834140000e-2
1.220624186150000e-2 1.241594980110000e-2 1.262924240530000e-2 1.284618094890000e-2
1.306682775420000e-2 1.329124620860000e-2 1.351950078340000e-2 1.375165705150000e-2
1.398778170700000e-2 1.422794258400000e-2 1.447220867600000e-2 1.472065015590000e-2
1.497333839620000e-2 1.523034598930000e-2 1.549174676850000e-2 1.575761582930000e-2
1.602802955060000e-2 1.630306561700000e-2 1.658280304120000e-2 1.686732218620000e-2
1.715670478900000e-2 1.745103398340000e-2 1.775039432470000e-2 1.805487181320000e-2
1.836455391950000e-2 1.867952960910000e-2 1.899988936860000e-2 1.932572523110000e-2
1.965713080290000e-2 1.999420129050000e-2 2.033703352760000e-2 2.068572600330000e-2
2.104037889030000e-2 2.140109407340000e-2 2.176797517920000e-2 2.214112760540000e-2
2.252065855160000e-2 2.290667704960000e-2 2.329929399510000e-2 2.369862217940000e-2
2.410477632170000e-2 2.451787310220000e-2 2.493803119560000e-2 2.536537130520000e-2
2.580001619770000e-2 2.624209073800000e-2 2.669172192550000e-2 2.714903893070000e-2
2.761417313190000e-2 2.808725815310000e-2 2.856842990250001e-2 2.905782661140000e-2
2.955558887410001e-2 3.006185968790000e-2 3.057678449480000e-2 3.110051122260000e-2
3.163319032790000e-2 3.217497483900000e-2 3.272602040030001e-2 3.328648531640000e-2
3.385653059800000e-2 3.443632000820001e-2 3.502602010920000e-2 3.562580031040000e-2
3.623583291710000e-2 3.685629317980000e-2 3.748735934480000e-2 3.812921270510000e-2
3.878203765290000e-2 3.944602173210000e-2 4.012135569240000e-2 4.080823354430000e-2
4.150685261440000e-2 4.221741360260000e-2 4.294012063919999e-2 4.367518134390000e-2
4.442280688549999e-2 4.518321204240000e-2 4.595661526420000e-2 4.674323873470000e-2
4.754330843560000e-2 4.835705421140000e-2 4.918470983560000e-2 5.002651307760000e-2
5.088270577130000e-2 5.175353388400000e-2 5.263924758810000e-2 5.354010133179999e-2
5.445635391300000e-2 5.538826855330000e-2 5.633611297390000e-2 5.730015947190000e-2
5.828068499940001e-2 5.927797124240000e-2 6.029230470190000e-2 6.132397677620000e-2
6.237328384490000e-2 6.344052735340000e-2 6.452601390029999e-2 6.563005532480000e-2
6.675296879659999e-2 6.789507690710001e-2 6.905670776170001e-2 7.023819507470000e-2
7.143987826429999e-2 7.266210255100001e-2 7.390521905609999e-2 7.516958490300000e-2
7.645556331940000e-2 7.776352374219999e-2 7.909384192299999e-2 8.044690003640000e-2
8.182308679000000e-2 8.322279753550001e-2 8.464643438270000e-2 8.609440631500000e-2
8.756712930670002e-2 8.906502644250001e-2 9.058852803939999e-2 9.213807176990001e-2
9.371410278790000e-2 9.531707385659999e-2 9.694744547860001e-2 9.860568602810000e-2
1.002922718860000e-1 1.020076875740000e-1 1.037524259000000e-1 1.055269880930000e-1
1.073318839500000e-1 1.091676319820000e-1 1.110347595660000e-1 1.129338030890000e-1
1.148653081110000e-1 1.168298295160000e-1 1.188279316720000e-1 1.208601885970000e-1
1.229271841170000e-1 1.250295120410000e-1 1.271677763260000e-1 1.293425912560000e-1
1.315545816110000e-1 1.338043828550000e-1 1.360926413110000e-1 1.384200143510000e-1
1.407871705860000e-1 1.431947900530000e-1 1.456435644150000e-1 1.481341971560000e-1
1.506674037890000e-1 1.532439120530000e-1 1.558644621310000e-1 1.585298068550000e-1
1.612407119270000e-1 1.639979561380000e-1 1.668023315900000e-1 1.696546439270000e-1
1.725557125630000e-1 1.755063709190000e-1 1.785074666610000e-1 1.815598619460000e-1
1.846644336690000e-1 1.878220737120000e-1 1.910336892060000e-1 1.943002027840000e-1
1.976225528530000e-1 2.010016938590000e-1 2.044385965650000e-1 2.079342483260000e-1
2.114896533760000e-1 2.151058331130000e-1 2.187838263950000e-1 2.225246898400000e-1
2.263294981250000e-1 2.301993442970000e-1 2.341353400890000e-1 2.381386162350000e-1
2.422103228000000e-1 2.463516295070000e-1 2.505637260720000e-1 2.548478225490000e-1
2.592051496770000e-1 2.636369592310000e-1 2.681445243840000e-1 2.727291400720000e-1
2.773921233670000e-1 2.821348138540000e-1 2.869585740160000e-1 2.918647896260000e-1
2.968548701440000e-1 3.019302491250000e-1 3.070923846260000e-1 3.123427596290000e-1
3.176828824650000e-1 3.231142872490000e-1 3.286385343170000e-1 3.342572106790000e-1
3.399719304720000e-1 3.457843354240000e-1 3.516960953270000e-1 3.577089085150000e-1
3.638245023530000e-1 3.700446337320000e-1 3.763710895770000e-1 3.828056873550000e-1
3.893502756020000e-1 3.960067344510000e-1 4.027769761740000e-1 4.096629457310000e-1
4.166666213270000e-1 4.237900149840000e-1 4.310351731130000e-1 4.384041771090000e-1
4.458991439440000e-1 4.535222267770000e-1 4.612756155720000e-1 4.691615377280000e-1
4.771822587180000e-1 4.853400827390000e-1 4.936373533760000e-1 5.020764542750000e-1
5.106598098270000e-1 5.193898858620000e-1 5.282691903640000e-1 5.373002741830000e-1
5.464857317770000e-1 5.558282019489999e-1 5.653303686099999e-1 5.749949615489999e-1
5.848247572170000e-1 5.948225795220000e-1 6.049913006470000e-1 6.153338418670000e-1
6.258531743960000e-1 6.365523202330000e-1 6.474343530370001e-1 6.585023990040000e-1
6.697596377710000e-1 6.812093033230000e-1 6.928546849280000e-1 7.046991280800000e-1
7.167460354570000e-1 7.289988679029999e-1 7.414611454190000e-1 7.541364481770000e-1
7.670284175460001e-1 7.801407571390000e-1 7.934772338779999e-1 8.070416790730000e-1
8.208379895289999e-1 8.348701286580001e-1 8.491421276210001e-1 8.636580864890000e-1
8.784221754150000e-1 8.934386358360001e-1 9.087117816899999e-1 9.242460006580000e-1
9.400457554190000e-1 9.561155849380000e-1 9.724601057650000e-1 9.890840133639999e-1
1.005992083460000e0 1.023189173420000e0 1.040680223640000e0 1.058470258940000e0
1.076564390080000e0 1.094967815130000e0 1.113685821040000e0 1.132723785150000e0
1.152087176680000e0 1.171781558370000e0 1.191812588030000e0 1.212186020180000e0
1.232907707720000e0 1.253983603590000e0 1.275419762490000e0 1.297222342610000e0
1.319397607400000e0 1.341951927400000e0 1.364891782020000e0 1.388223761450000e0
1.411954568490000e0 1.436091020570000e0 1.460640051610000e0 1.485608714070000e0
1.511004180970000e0 1.536833747940000e0 1.563104835310000e0 1.589824990250000e0
1.617001888940000e0 1.644643338790000e0 1.672757280650000e0 1.701351791110000e0
1.730435084820000e0 1.760015516850000e0 1.790101585080000e0 1.820701932660000e0
1.851825350470000e0 1.883480779670000e0 1.915677314260000e0 1.948424203670000e0
1.981730855460000e0 2.015606837970000e0 2.050061883130000e0 2.085105889200000e0
2.120748923640000e0 2.157001226020000e0 2.193873210900000e0 2.231375470920000e0
2.269518779720000e0 2.308314095160000e0 2.347772562370000e0 2.387905517020000e0
2.428724488510000e0 2.470241203350000e0 2.512467588490000e0 2.555415774750000e0
2.599098100310000e0 2.643527114270000e0 2.688715580220000e0 2.734676479920000e0
2.781423017070000e0 2.828968621020000e0 2.877326950720000e0 2.926511898580000e0
2.976537594480000e0 3.027418409830000e0 3.079168961710000e0 3.131804117050000e0
3.185338996910000e0 3.239788980830000e0 3.295169711230000e0 3.351497097940000e0
3.408787322700000e0 3.467056843900000e0 3.526322401250000e0 3.586601020580000e0
3.647910018790000e0 3.710267008760000e0 3.773689904450000e0 3.838196926020000e0
3.903806605100000e0 3.970537790080000e0 4.038409651540000e0 4.107441687740000e0
4.177653730260000e0 4.249065949660000e0 4.321698861280000e0 4.395573331170000e0
4.470710582010000e0 4.547132199300000e0 4.624860137470000e0 4.703916726280000e0
4.784324677130000e0 4.866107089690000e0 4.949287458450000e0 5.033889679530000e0
5.119938057510000e0 5.207457312420000e0 5.296472586850000e0 5.387009453160000e0
5.479093920850000e0 5.572752444000000e0 5.668011928890000e0 5.764899741730000e0
5.863443716510000e0 5.963672163020000e0 6.065613874930000e0 6.169298138140000e0
6.274754739130000e0 6.382013973530000e0 6.491106654850000e0 6.602064123310000e0
6.714918254840000e0 6.829701470240000e0 6.946446744520000e0 7.065187616340000e0
7.185958197640000e0 7.308793183470000e0 7.433727861960000e0 7.560798124420000e0
7.690040475680000e0 7.821492044560000e0 7.955190594550000e0 8.091174534660000e0
8.229482930450001e0 8.370155515230000e0 8.513232701540000e0 8.658755592660000e0
8.806765994510000e0 8.957306427610000e0 9.110420139320000e0 9.266151116250001e0
9.424544096880000e0 9.585644584470000e0 9.749498860050000e0 9.916153995800000e0
1.008565786850000e1 1.025805917340000e1 1.043340743790000e1 1.061175303630000e1
1.079314720390000e1 1.097764205150000e1 1.116529058110000e1 1.135614670040000e1
1.155026523880000e1 1.174770196260000e1 1.194851359160000e1 1.215275781530000e1
1.236049330880000e1 1.257177975070000e1 1.278667783950000e1 1.300524931120000e1
1.322755695710000e1 1.345366464200000e1 1.368363732220000e1 1.391754106440000e1
1.415544306470000e1 1.439741166760000e1 1.464351638610000e1 1.489382792130000e1
1.514841818290000e1 1.540736030970000e1 1.567072869070000e1 1.593859898670000e1
1.621104815150000e1 1.648815445450000e1 1.676999750310000e1 1.705665826530000e1
1.734821909310000e1 1.764476374630000e1 1.794637741660000e1 1.825314675160000e1
1.856515988020000e1 1.888250643790000e1 1.920527759200000e1 1.953356606860000e1
1.986746617850000e1 2.020707384480000e1 2.055248663010000e1 2.090380376500000e1
2.126112617600000e1 2.162455651500000e1 2.199419918830000e1 2.237016038730000e1
2.275254811830000e1 2.314147223390000e1 2.353704446450000e1 2.393937845020000e1
2.434858977400000e1 2.476479599420000e1 2.518811667890000e1 2.561867343990000e1
2.605658996790000e1 2.650199206770000e1 2.695500769490000e1 2.741576699190000e1
2.788440232610000e1 2.836104832730000e1 2.884584192660000e1 2.933892239600000e1
2.984043138780000e1 3.035051297600000e1 3.086931369700000e1 3.139698259230000e1
3.193367125090000e1 3.247953385310000e1 3.303472721470000e1 3.359941083200000e1
3.417374692770000e1 3.475790049730000e1 3.535203935700000e1 3.595633419130000e1
3.657095860240000e1 3.719608916010000e1 3.783190545220000e1 3.847859013640000e1
3.913632899280000e1 3.980531097700000e1 4.048572827460000e1 4.117777635630000e1
4.188165403410000e1 4.259756351850000e1 4.332571047640000e1 4.406630409030000e1
4.481955711850000e1 4.558568595590000e1 4.636491069660000e1 4.715745519670000e1
4.796354713900000e1 4.878341809800000e1 4.961730360690001e1 5.046544322470001e1
5.132808060570000e1 5.220546356870000e1 5.309784416910000e1 5.400547877030000e1
5.492862811840000e1 5.586755741620000e1 5.682253640000000e1 5.779383941670001e1
5.878174550300001e1 5.978653846500000e1 6.080850696040001e1 6.184794458100001e1
6.290514993710000e1 6.398042674320000e1 6.507408390569999e1 6.618643561110000e1
6.731780141640001e1 6.846850634130000e1 6.963888096090000e1 7.082926150120000e1
7.203998993560001e1 7.327141408280001e1 7.452388770720001e1 7.579777062030001e1
7.709342878390000e1 7.841123441560001e1 7.975156609550000e1 8.111480887480001e1
8.250135438680001e1 8.391160095930001e1 8.534595372880000e1 8.680482475709999e1
8.828863314960001e1 8.979780517580000e1 9.133277439150000e1 9.289398176370000e1
9.448187579710000e1 9.609691266300000e1 9.773955633010001e1 9.941027869820001e1
1.011095597330000e2 1.028378876060000e2 1.045957588320000e2 1.063836784140000e2
1.082021599850000e2 1.100517259610000e2 1.119329076860000e2 1.138462455870000e2
1.157922893290000e2 1.177715979730000e2 1.197847401360000e2 1.218322941550000e2
1.239148482520000e2 1.260330007050000e2 1.281873600180000e2 1.303785450960000e2
1.326071854260000e2 1.348739212520000e2 1.371794037630000e2 1.395242952800000e2
1.419092694450000e2 1.443350114150000e2 1.468022180590000e2 1.493115981560000e2
1.518638726050000e2 1.544597746230000e2 1.571000499630000e2 1.597854571260000e2
1.625167675760000e2 1.652947659660000e2 1.681202503620000e2 1.709940324700000e2
1.739169378730000e2 1.768898062640000e2 1.799134916920000e2 1.829888628020000e2
1.861168030890000e2 1.892982111500000e2 1.925340009420000e2 1.958251020440000e2
1.991724599270000e2 2.025770362210000e2 2.060398089950000e2
</PP_R>
<PP_RAB>
1.050318718930000e-6 1.068272451590000e-6 1.086533078250000e-6 1.105105844840000e-6
1.123996086960000e-6 1.143209231400000e-6 1.162750797740000e-6 1.182626399870000e-6
1.202841747690000e-6 1.223402648660000e-6 1.244315009550000e-6 1.265584838050000e-6
1.287218244590000e-6 1.309221444020000e-6 1.331600757440000e-6 1.354362613990000e-6
1.377513552710000e-6 1.401060224410000e-6 1.425009393610000e-6 1.449367940430000e-6
1.474142862620000e-6 1.499341277520000e-6 1.524970424160000e-6 1.551037665290000e-6
1.577550489530000e-6 1.604516513500000e-6 1.631943484010001e-6 1.659839280310000e-6
1.688211916310000e-6 1.717069542930000e-6 1.746420450400000e-6 1.776273070670000e-6
1.806635979820000e-6 1.837517900530000e-6 1.868927704580000e-6 1.900874415380000e-6
1.933367210630000e-6 1.966415424860000e-6 2.000028552190000e-6 2.034216249030000e-6
2.068988336819999e-6 2.104354804930000e-6 2.140325813460000e-6 2.176911696170000e-6
2.214122963490000e-6 2.251970305490000e-6 2.290464594980000e-6 2.329616890630000e-6
2.369438440130000e-6 2.409940683440000e-6 2.451135256080000e-6 2.493033992450000e-6
2.535648929240000e-6 2.578992308890000e-6 2.623076583140000e-6 2.667914416530000e-6
2.713518690100000e-6 2.759902505079999e-6 2.807079186650000e-6 2.855062287749999e-6
2.903865592990000e-6 2.953503122630000e-6 3.003989136560001e-6 3.055338138450000e-6
3.107564879850000e-6 3.160684364510000e-6 3.214711852630000e-6 3.269662865250000e-6
3.325553188749999e-6 3.382398879330000e-6 3.440216267649999e-6 3.499021963530000e-6
3.558832860709999e-6 3.619666141710000e-6 3.681539282750000e-6 3.744470058780000e-6
3.808476548600001e-6 3.873577140039999e-6 3.939790535230001e-6 4.007135756009999e-6
4.075632149340000e-6 4.145299392929999e-6 4.216157500810000e-6 4.288226829159999e-6
4.361528082100001e-6 4.436082317660000e-6 4.511910953820000e-6 4.589035774689999e-6
4.667478936740000e-6 4.747262975170001e-6 4.828410810380000e-6 4.910945754590001e-6
4.994891518479999e-6 5.080272218049999e-6 5.167112381520002e-6 5.255436956389998e-6
5.345271316600000e-6 5.436641269829999e-6 5.529573064880001e-6 5.624093399280001e-6
5.720229426880000e-6 5.818008765700000e-6 5.917459505860000e-6 6.018610217629999e-6
6.121489959640001e-6 6.226128287270001e-6 6.332555261070000e-6 6.440801455459999e-6
6.550897967470002e-6 6.662876425699999e-6 6.776768999400000e-6 6.892608407690002e-6
7.010427929000000e-6 7.130261410599998e-6 7.252143278329999e-6 7.376108546479999e-6
7.502192827889999e-6 7.630432344119999e-6 7.760863935900000e-6 7.893525073720000e-6
8.028453868550001e-6 8.165689082810001e-6 8.305270141529999e-6 8.447237143660001e-6
8.591630873549999e-6 8.738492812729998e-6 8.887865151810001e-6 9.039790802549998e-6
9.194313410270000e-6 9.351477366310000e-6 9.511327820840000e-6 9.673910695800000e-6
9.839272698099998e-6 1.000746133310000e-5 1.017852491800000e-5 1.035251259620000e-5
1.052947435090000e-5 1.070946101990000e-5 1.089252430970000e-5 1.107871681100000e-5
1.126809201330000e-5 1.146070432040000e-5 1.165660906600000e-5 1.185586252990000e-5
1.205852195360000e-5 1.226464555740000e-5 1.247429255650000e-5 1.268752317850000e-5
1.290439868030000e-5 1.312498136620000e-5 1.334933460520000e-5 1.357752284980000e-5
1.380961165400000e-5 1.404566769230000e-5 1.428575877920000e-5 1.452995388810000e-5
1.477832317160000e-5 1.503093798140000e-5 1.528787088880000e-5 1.554919570570000e-5
1.581498750560000e-5 1.608532264540000e-5 1.636027878720000e-5 1.663993492040000e-5
1.692437138490000e-5 1.721366989390000e-5 1.750791355710000e-5 1.780718690510000e-5
1.811157591330000e-5 1.842116802670000e-5 1.873605218530000e-5 1.905631884910000e-5
1.938206002460000e-5 1.971336929090000e-5 2.005034182660000e-5 2.039307443760000e-5
2.074166558430000e-5 2.109621541010000e-5 2.145682577040000e-5 2.182360026150000e-5
2.219664425060000e-5 2.257606490620000e-5 2.296197122830000e-5 2.335447408040000e-5
2.375368622100000e-5 2.415972233600000e-5 2.457269907170001e-5 2.499273506830000e-5
2.541995099410000e-5 2.585446957989999e-5 2.629641565449999e-5 2.674591618050000e-5
2.720310029060000e-5 2.766809932510000e-5 2.814104686910000e-5 2.862207879130000e-5
2.911133328290000e-5 2.960895089720000e-5 3.011507459009999e-5 3.062984976120000e-5
3.115342429540000e-5 3.168594860560000e-5 3.222757567570000e-5 3.277846110460001e-5
3.333876315119999e-5 3.390864277920000e-5 3.448826370410000e-5 3.507779243990000e-5
3.567739834660000e-5 3.628725367950000e-5 3.690753363810000e-5 3.753841641700000e-5
3.818008325649999e-5 3.883271849520000e-5 3.949650962240001e-5 4.017164733250000e-5
4.085832557960000e-5 4.155674163290001e-5 4.226709613399999e-5 4.298959315389999e-5
4.372444025200000e-5 4.447184853560000e-5 4.523203272080000e-5 4.600521119380002e-5
4.679160607360000e-5 4.759144327650001e-5 4.840495258000000e-5 4.923236768980001e-5
5.007392630610000e-5 5.092987019240001e-5 5.180044524490000e-5 5.268590156300000e-5
5.358649352100000e-5 5.450247984170000e-5 5.543412367020000e-5 5.638169264980000e-5
5.734545899860000e-5 5.832569958800001e-5 5.932269602239999e-5 6.033673471930000e-5
6.136810699260000e-5 6.241710913540000e-5 6.348404250600000e-5 6.456921361339997e-5
6.567293420650000e-5 6.679552136270001e-5 6.793729757959999e-5 6.909859086749998e-5
7.027973484349999e-5 7.148106882730000e-5 7.270293793890001e-5 7.394569319779999e-5
7.520969162339998e-5 7.649529633800000e-5 7.780287667110000e-5 7.913280826500001e-5
8.048547318350002e-5 8.186126002089999e-5 8.326056401429998e-5 8.468378715659998e-5
8.613133831219999e-5 8.760363333450000e-5 8.910109518560001e-5 9.062415405709999e-5
9.217324749440001e-5 9.374882052209999e-5 9.535132577180001e-5 9.698122361220001e-5
9.863898228160000e-5 1.003250780220000e-4 1.020399952160000e-4 1.037842265250000e-4
1.055582730350000e-4 1.073626443940000e-4 1.091978589630000e-4 1.110644439640000e-4
1.129629356310000e-4 1.148938793630000e-4 1.168578298830000e-4 1.188553513960000e-4
1.208870177520000e-4 1.229534126090000e-4 1.250551296020000e-4 1.271927725140000e-4
1.293669554490000e-4 1.315783030060000e-4 1.338274504630000e-4 1.361150439570000e-4
1.384417406700000e-4 1.408082090150000e-4 1.432151288350000e-4 1.456631915890000e-4
1.481531005600000e-4 1.506855710490000e-4 1.532613305880000e-4 1.558811191400000e-4
1.585456893220000e-4 1.612558066130000e-4 1.640122495760000e-4 1.668158100850000e-4
1.696672935480000e-4 1.725675191410000e-4 1.755173200430000e-4 1.785175436750000e-4
1.815690519430000e-4 1.846727214850000e-4 1.878294439270000e-4 1.910401261340000e-4
1.943056904720000e-4 1.976270750750000e-4 2.010052341120000e-4 2.044411380640000e-4
2.079357739980000e-4 2.114901458570000e-4 2.151052747420000e-4 2.187821992100000e-4
2.225219755700000e-4 2.263256781870000e-4 2.301943997930000e-4 2.341292517950000e-4
2.381313646000000e-4 2.422018879390000e-4 2.463419911930000e-4 2.505528637340000e-4
2.548357152650000e-4 2.591917761650000e-4 2.636222978470000e-4 2.681285531139999e-4
2.727118365250000e-4 2.773734647700000e-4 2.821147770440000e-4 2.869371354350000e-4
2.918419253120000e-4 2.968305557260000e-4 3.019044598159999e-4 3.070650952140000e-4
3.123139444730000e-4 3.176525154840000e-4 3.230823419160000e-4 3.286049836530000e-4
3.342220272430001e-4 3.399350863540000e-4 3.457458022370000e-4 3.516558441990000e-4
3.576669100800000e-4 3.637807267430000e-4 3.699990505690000e-4 3.763236679630000e-4
3.827563958640000e-4 3.892990822720000e-4 3.959536067720000e-4 4.027218810820000e-4
4.096058495939999e-4 4.166074899420000e-4 4.237288135590000e-4 4.309718662650000e-4
4.383387288489999e-4 4.458315176670001e-4 4.534523852530000e-4 4.612035209349999e-4
4.690871514630000e-4 4.771055416530000e-4 4.852609950330001e-4 4.935558545060000e-4
5.019925030260000e-4 5.105733642770000e-4 5.193009033770001e-4 5.281776275760000e-4
5.372060869880000e-4 5.463888753130000e-4 5.557286305889999e-4 5.652280359459999e-4
5.748898203810000e-4 5.847167595359998e-4 5.947116765020000e-4 6.048774426240001e-4
6.152169783300000e-4 6.257332539700000e-4 6.364292906650000e-4 6.473081611790001e-4
6.583729908020000e-4 6.696269582460000e-4 6.810732965570000e-4 6.927152940460001e-4
7.045562952350000e-4 7.165997018140001e-4 7.288489736200000e-4 7.413076296320000e-4
7.539792489819998e-4 7.668674719799999e-4 7.799760011629999e-4 7.933086023570000e-4
8.068691057620001e-4 8.206614070479999e-4 8.346894684750000e-4 8.489573200350000e-4
8.634690606050000e-4 8.782288591260000e-4 8.932409558050001e-4 9.085096633250000e-4
9.240393680920000e-4 9.398345314869999e-4 9.558996911570000e-4 9.722394623110000e-4
9.888585390490000e-4 1.005761695710000e-3 1.022953788240000e-3 1.040439755600000e-3
1.058224621170000e-3 1.076313494200000e-3 1.094711571270000e-3 1.113424137780000e-3
1.132456569510000e-3 1.151814334090000e-3 1.171502992650000e-3 1.191528201340000e-3
1.211895713030000e-3 1.232611378910000e-3 1.253681150180000e-3 1.275111079790000e-3
1.296907324130000e-3 1.319076144860000e-3 1.341623910630000e-3 1.364557099000000e-3
1.387882298210000e-3 1.411606209150000e-3 1.435735647240000e-3 1.460277544400000e-3
1.485238951040000e-3 1.510627038080000e-3 1.536449099050000e-3 1.562712552110000e-3
1.589424942240000e-3 1.616593943410000e-3 1.644227360730000e-3 1.672333132750000e-3
1.700919333730000e-3 1.729994175910000e-3 1.759566011950000e-3 1.789643337250000e-3
1.820234792450000e-3 1.851349165880000e-3 1.882995396100000e-3 1.915182574460000e-3
1.947919947720000e-3 1.981216920680000e-3 2.015083058930000e-3 2.049528091540000e-3
2.084561913920000e-3 2.120194590590000e-3 2.156436358150000e-3 2.193297628140000e-3
2.230788990100000e-3 2.268921214560000e-3 2.307705256190000e-3 2.347152256880000e-3
2.387273548990000e-3 2.428080658600000e-3 2.469585308800000e-3 2.511799423060000e-3
2.554735128700000e-3 2.598404760300000e-3 2.642820863310000e-3 2.687996197610000e-3
2.733943741210000e-3 2.780676693930000e-3 2.828208481270000e-3 2.876552758170000e-3
2.925723413010000e-3 2.975734571580000e-3 3.026600601100000e-3 3.078336114410000e-3
3.130955974120000e-3 3.184475296900000e-3 3.238909457800000e-3 3.294274094710000e-3
3.350585112830000e-3 3.407858689210000e-3 3.466111277450000e-3 3.525359612390000e-3
3.585620714920000e-3 3.646911896900000e-3 3.709250766100000e-3 3.772655231260000e-3